LAMMPS data file. CGCMM style. atom_style full generated by VMD/TopoTools v1.5 on Wed Sep 21 15:16:10 BST 2016
 3000 atoms
 3 atom types
 -24.647512 24.746184  xlo xhi
 -20.284236 20.436925  ylo yhi
 -9.033983 8.966017  zlo zhi

# Pair Coeffs
#
# Ca  1
# C  2
# O  3


 Masses

 1 40.080000 # Ca
 2 12.010700 # C
 3 15.999400 # O

 Atoms

1 1 1 2.000000 -20.970388 -18.011116 7.719888 # Ca 
2 2 1 2.000000 -23.469563 -19.163565 -1.438084 # Ca 
3 3 1 2.000000 -20.997257 -18.164387 -4.555630 # Ca 
4 4 1 2.000000 -18.534706 -17.273197 4.724465 # Ca 
5 5 1 2.000000 -20.991173 -16.352043 1.523709 # Ca 
6 6 1 2.000000 -23.617979 -17.234600 -7.588084 # Ca 
7 6 2 1.123282 -23.445818 -20.181482 -4.534986 # C 
8 5 2 1.123282 -20.776945 -19.121490 4.651885 # C 
9 2 2 1.123282 -18.632338 -18.383280 1.622201 # C 
10 1 2 1.123282 -20.963488 -19.340824 -7.570186 # C 
11 4 2 1.123282 -23.610891 -15.969022 7.618701 # C 
12 3 2 1.123282 -21.197186 -17.216366 -1.508943 # C 
13 6 3 -1.041094 -22.158703 -20.226250 -4.660343 # O 
14 6 3 -1.041094 -24.193850 -20.954678 -5.255027 # O 
15 6 3 -1.041094 -24.073870 -19.245962 -3.657161 # O 
16 5 3 -1.041094 -21.671917 -20.076904 3.802941 # O 
17 5 3 -1.041094 -21.529758 -18.169834 5.513562 # O 
18 5 3 -1.041094 -19.486099 -19.214048 4.667478 # O 
19 2 3 -1.041094 -17.942316 -17.620602 2.409278 # O 
20 2 3 -1.041094 -18.029882 -19.145256 0.766586 # O 
21 2 3 -1.041094 -19.925423 -18.384129 1.692006 # O 
22 1 3 -1.041094 -22.242977 -19.510740 -7.679184 # O 
23 1 3 -1.041094 -20.151249 -20.094196 -8.238831 # O 
24 1 3 -1.041094 -20.497311 -18.416220 -6.792888 # O 
25 4 3 -1.041094 -24.212959 -15.188847 8.457961 # O 
26 4 3 -1.041094 -24.298204 -16.789253 6.889382 # O 
27 4 3 -1.041094 -22.321589 -15.929853 7.509889 # O 
28 3 3 -1.041094 -21.866402 -16.542931 -0.628305 # O 
29 3 3 -1.041094 -21.820486 -17.972130 -2.356485 # O 
30 3 3 -1.041094 -19.905689 -17.134991 -1.541857 # O 
31 7 1 2.000000 -16.146572 -18.187794 7.712485 # Ca 
32 8 1 2.000000 -18.685196 -19.235933 -1.490512 # Ca 
33 9 1 2.000000 -16.012012 -18.329754 -4.523339 # Ca 
34 10 1 2.000000 -13.468400 -17.223066 4.756839 # Ca 
35 11 1 2.000000 -15.974393 -16.385574 1.658191 # Ca 
36 12 1 2.000000 -18.535864 -17.412693 -7.630194 # Ca 
37 12 2 1.123282 -18.483318 -20.427269 -4.439082 # C 
38 11 2 1.123282 -15.853066 -19.300198 4.513234 # C 
39 8 2 1.123282 -13.572177 -18.490231 1.599299 # C 
40 7 2 1.123282 -15.893952 -19.385239 -7.643420 # C 
41 10 2 1.123282 -18.578844 -16.325394 7.721736 # C 
42 9 2 1.123282 -16.187410 -17.163895 -1.582952 # C 
43 12 3 -1.041094 -17.193293 -20.377258 -4.338544 # O 
44 12 3 -1.041094 -19.034996 -21.219082 -5.302289 # O 
45 12 3 -1.041094 -19.321630 -19.575907 -3.657178 # O 
46 11 3 -1.041094 -16.652458 -20.385002 3.727704 # O 
47 11 3 -1.041094 -16.682756 -18.439987 5.400525 # O 
48 11 3 -1.041094 -14.561815 -19.218357 4.461452 # O 
49 8 3 -1.041094 -12.927502 -19.301392 0.823044 # O 
50 8 3 -1.041094 -14.865362 -18.443336 1.556729 # O 
51 8 3 -1.041094 -12.924689 -17.726007 2.419524 # O 
52 7 3 -1.041094 -15.207382 -20.168699 -8.413671 # O 
53 7 3 -1.041094 -15.285416 -18.557697 -6.855155 # O 
54 7 3 -1.041094 -17.187622 -19.430962 -7.660954 # O 
55 10 3 -1.041094 -17.333492 -16.052357 7.947818 # O 
56 10 3 -1.041094 -18.894297 -17.308392 6.939721 # O 
57 10 3 -1.041094 -19.507614 -15.616283 8.277730 # O 
58 9 3 -1.041094 -16.691296 -16.313919 -0.747109 # O 
59 9 3 -1.041094 -16.967911 -17.905712 -2.302354 # O 
60 9 3 -1.041094 -14.901910 -17.272030 -1.700259 # O 
61 13 1 2.000000 -11.044554 -18.070669 7.704276 # Ca 
62 14 1 2.000000 -13.657378 -19.317928 -1.499834 # Ca 
63 15 1 2.000000 -11.144131 -18.262646 -4.572998 # Ca 
64 16 1 2.000000 -8.637465 -17.190777 4.509336 # Ca 
65 17 1 2.000000 -11.095844 -16.294439 1.364070 # Ca 
66 18 1 2.000000 -13.643328 -17.323700 -7.660978 # Ca 
67 18 2 1.123282 -13.476904 -20.299610 -4.559108 # C 
68 17 2 1.123282 -10.944544 -19.389339 4.731158 # C 
69 14 2 1.123282 -8.645870 -18.295156 1.478850 # C 
70 13 2 1.123282 -11.126250 -19.302588 -7.562842 # C 
71 16 2 1.123282 -13.672014 -16.090134 7.486913 # C 
72 15 2 1.123282 -11.259774 -17.350042 -1.579100 # C 
73 18 3 -1.041094 -12.186130 -20.224312 -4.620777 # O 
74 18 3 -1.041094 -14.113868 -21.133999 -5.318069 # O 
75 18 3 -1.041094 -14.231571 -19.434151 -3.710611 # O 
76 17 3 -1.041094 -11.709602 -20.335121 3.753482 # O 
77 17 3 -1.041094 -11.814371 -18.651314 5.688792 # O 
78 17 3 -1.041094 -9.651583 -19.322048 4.760453 # O 
79 14 3 -1.041094 -7.958075 -19.093431 0.727715 # O 
80 14 3 -1.041094 -9.939698 -18.352612 1.470050 # O 
81 14 3 -1.041094 -8.041792 -17.438370 2.238534 # O 
82 13 3 -1.041094 -10.484378 -18.431767 -6.850950 # O 
83 13 3 -1.041094 -12.412836 -19.223043 -7.679421 # O 
84 13 3 -1.041094 -10.480163 -20.254002 -8.158268 # O 
85 16 3 -1.041094 -14.184420 -15.198775 8.275125 # O 
86 16 3 -1.041094 -14.438165 -16.955832 6.904429 # O 
87 16 3 -1.041094 -12.394115 -16.114561 7.281405 # O 
88 15 3 -1.041094 -9.968482 -17.259525 -1.531591 # O 
89 15 3 -1.041094 -11.990061 -16.575134 -0.842637 # O 
90 15 3 -1.041094 -11.819709 -18.214708 -2.363596 # O 
91 19 1 2.000000 -6.193321 -18.065462 7.710725 # Ca 
92 20 1 2.000000 -8.733116 -19.357555 -1.478619 # Ca 
93 21 1 2.000000 -6.343121 -18.325994 -4.509213 # Ca 
94 22 1 2.000000 -3.659891 -17.262897 4.514857 # Ca 
95 23 1 2.000000 -6.201942 -16.286249 1.391223 # Ca 
96 24 1 2.000000 -8.574971 -17.289738 -7.615479 # Ca 
97 24 2 1.123282 -8.654798 -20.373421 -4.759613 # C 
98 23 2 1.123282 -6.185219 -19.249035 4.399743 # C 
99 20 2 1.123282 -3.786116 -18.356863 1.413611 # C 
100 19 2 1.123282 -6.250223 -19.323652 -7.622496 # C 
101 22 2 1.123282 -8.763827 -16.273716 7.741912 # C 
102 21 2 1.123282 -6.155825 -17.505756 -1.553299 # C 
103 24 3 -1.041094 -9.325345 -21.233036 -5.459065 # O 
104 24 3 -1.041094 -7.362270 -20.343235 -4.837502 # O 
105 24 3 -1.041094 -9.307061 -19.489304 -3.847095 # O 
106 23 3 -1.041094 -6.694628 -18.174580 5.409280 # O 
107 23 3 -1.041094 -4.706190 -19.295174 4.235974 # O 
108 23 3 -1.041094 -6.983435 -20.088165 3.819716 # O 
109 20 3 -1.041094 -5.077791 -18.273880 1.408790 # O 
110 20 3 -1.041094 -3.192068 -19.249523 0.688501 # O 
111 20 3 -1.041094 -3.087994 -17.546318 2.143487 # O 
112 19 3 -1.041094 -7.521309 -19.200975 -7.831665 # O 
113 19 3 -1.041094 -5.656710 -18.552349 -6.768590 # O 
114 19 3 -1.041094 -5.571718 -20.218487 -8.266604 # O 
115 22 3 -1.041094 -9.111718 -17.115494 6.822305 # O 
116 22 3 -1.041094 -9.670442 -15.633880 8.410319 # O 
117 22 3 -1.041094 -7.510313 -16.070974 7.994287 # O 
118 21 3 -1.041094 -4.868176 -17.370129 -1.547733 # O 
119 21 3 -1.041094 -6.895323 -16.680950 -0.882906 # O 
120 21 3 -1.041094 -6.703880 -18.463741 -2.229327 # O 
121 25 1 2.000000 -1.227156 -18.115591 7.588012 # Ca 
122 26 1 2.000000 -3.736223 -19.386911 -1.628271 # Ca 
123 27 1 2.000000 -1.244373 -18.240543 -4.619507 # Ca 
124 28 1 2.000000 1.165245 -17.167532 4.662339 # Ca 
125 29 1 2.000000 -1.313200 -16.227530 1.383149 # Ca 
126 30 1 2.000000 -3.659283 -17.528584 -7.618132 # Ca 
127 30 2 1.123282 -3.671946 -20.502785 -4.629459 # C 
128 29 2 1.123282 -1.033966 -19.179537 4.579841 # C 
129 26 2 1.123282 1.143654 -18.348396 1.602141 # C 
130 25 2 1.123282 -1.305923 -19.346212 -7.703720 # C 
131 28 2 1.123282 -3.796471 -16.205393 7.593221 # C 
132 27 2 1.123282 -1.270620 -17.449997 -1.530634 # C 
133 30 3 -1.041094 -2.413351 -20.222315 -4.525202 # O 
134 30 3 -1.041094 -4.072277 -21.371063 -5.503237 # O 
135 30 3 -1.041094 -4.651506 -19.825415 -3.839085 # O 
136 29 3 -1.041094 -1.937227 -20.208656 3.831704 # O 
137 29 3 -1.041094 -1.776974 -18.172337 5.386003 # O 
138 29 3 -1.041094 0.258474 -19.255901 4.569476 # O 
139 26 3 -1.041094 1.863329 -17.657219 2.427609 # O 
140 26 3 -1.041094 -0.133839 -18.151340 1.536485 # O 
141 26 3 -1.041094 1.701918 -19.235271 0.842671 # O 
142 25 3 -1.041094 -2.587719 -19.473545 -7.830551 # O 
143 25 3 -1.041094 -0.510830 -20.181606 -8.291981 # O 
144 25 3 -1.041094 -0.817955 -18.383846 -6.988105 # O 
145 28 3 -1.041094 -4.405527 -16.945786 6.723821 # O 
146 28 3 -1.041094 -4.480150 -15.532438 8.463754 # O 
147 28 3 -1.041094 -2.503780 -16.136234 7.591880 # O 
148 27 3 -1.041094 0.012749 -17.371519 -1.379164 # O 
149 27 3 -1.041094 -2.055498 -16.754906 -0.772136 # O 
150 27 3 -1.041094 -1.768482 -18.224491 -2.441921 # O 
151 31 1 2.000000 3.741283 -18.277512 7.711400 # Ca 
152 32 1 2.000000 1.101049 -19.317076 -1.556815 # Ca 
153 33 1 2.000000 3.537317 -18.404953 -4.331589 # Ca 
154 34 1 2.000000 6.135571 -17.267805 4.688176 # Ca 
155 35 1 2.000000 3.657907 -16.301828 1.701512 # Ca 
156 36 1 2.000000 1.324726 -17.412615 -7.540020 # Ca 
157 36 2 1.123282 1.246773 -20.449600 -4.461217 # C 
158 35 2 1.123282 3.872992 -19.168415 4.529569 # C 
159 32 2 1.123282 6.156206 -18.291830 1.521604 # C 
160 31 2 1.123282 3.785391 -19.353195 -7.498585 # C 
161 34 2 1.123282 1.211266 -16.173347 7.781375 # C 
162 33 2 1.123282 3.631578 -17.192814 -1.316481 # C 
163 36 3 -1.041094 2.534630 -20.541491 -4.365948 # O 
164 36 3 -1.041094 0.598820 -21.235096 -5.259889 # O 
165 36 3 -1.041094 0.520245 -19.449772 -3.744353 # O 
166 35 3 -1.041094 2.928411 -20.071985 3.676721 # O 
167 35 3 -1.041094 3.171080 -18.238846 5.456561 # O 
168 35 3 -1.041094 5.161833 -19.285034 4.492665 # O 
169 32 3 -1.041094 6.736202 -17.438725 2.303336 # O 
170 32 3 -1.041094 4.862640 -18.351311 1.475444 # O 
171 32 3 -1.041094 6.866880 -19.084835 0.786505 # O 
172 31 3 -1.041094 4.333376 -18.628582 -6.576186 # O 
173 31 3 -1.041094 4.527744 -19.999702 -8.339708 # O 
174 31 3 -1.041094 2.495544 -19.431555 -7.579030 # O 
175 34 3 -1.041094 0.674393 -16.991602 6.934615 # O 
176 34 3 -1.041094 0.476744 -15.300446 8.394330 # O 
177 34 3 -1.041094 2.484398 -16.226566 8.015187 # O 
178 33 3 -1.041094 2.914261 -17.894688 -2.135235 # O 
179 33 3 -1.041094 4.922380 -17.209803 -1.409315 # O 
180 33 3 -1.041094 3.056833 -16.474361 -0.404397 # O 
181 37 1 2.000000 8.735998 -18.018440 7.698325 # Ca 
182 38 1 2.000000 6.075081 -19.279488 -1.356820 # Ca 
183 39 1 2.000000 8.693754 -18.384502 -4.523023 # Ca 
184 40 1 2.000000 11.195017 -17.129282 4.509404 # Ca 
185 41 1 2.000000 8.703791 -16.322239 1.516912 # Ca 
186 42 1 2.000000 6.189066 -17.425016 -7.447295 # Ca 
187 42 2 1.123282 6.145437 -20.420286 -4.369246 # C 
188 41 2 1.123282 8.778158 -19.188618 4.607116 # C 
189 38 2 1.123282 10.978476 -18.226009 1.615472 # C 
190 37 2 1.123282 8.713446 -19.483746 -7.488811 # C 
191 40 2 1.123282 6.204926 -16.378849 7.832694 # C 
192 39 2 1.123282 8.598982 -17.311268 -1.404380 # C 
193 42 3 -1.041094 7.439125 -20.372599 -4.364357 # O 
194 42 3 -1.041094 5.529465 -21.208443 -5.191937 # O 
195 42 3 -1.041094 5.367548 -19.570738 -3.523784 # O 
196 41 3 -1.041094 8.016562 -20.237221 3.738307 # O 
197 41 3 -1.041094 7.910650 -18.391449 5.517467 # O 
198 41 3 -1.041094 10.068403 -19.086224 4.596551 # O 
199 38 3 -1.041094 11.610491 -19.006355 0.798696 # O 
200 38 3 -1.041094 9.694773 -18.331543 1.750480 # O 
201 38 3 -1.041094 11.630236 -17.340363 2.299676 # O 
202 37 3 -1.041094 9.313639 -20.261351 -8.332200 # O 
203 37 3 -1.041094 9.404963 -18.700777 -6.724206 # O 
204 37 3 -1.041094 7.420893 -19.490231 -7.409795 # O 
205 40 3 -1.041094 7.470079 -16.127398 7.936086 # O 
206 40 3 -1.041094 5.791025 -17.291161 7.011218 # O 
207 40 3 -1.041094 5.352285 -15.720006 8.550885 # O 
208 39 3 -1.041094 8.087614 -18.122831 -2.274355 # O 
209 39 3 -1.041094 9.884127 -17.227173 -1.275019 # O 
210 39 3 -1.041094 7.824644 -16.583435 -0.664512 # O 
211 43 1 2.000000 13.516359 -18.121628 7.622031 # Ca 
212 44 1 2.000000 11.004904 -19.231390 -1.437148 # Ca 
213 45 1 2.000000 13.563086 -18.383392 -4.661445 # Ca 
214 46 1 2.000000 16.083761 -17.342911 4.485824 # Ca 
215 47 1 2.000000 13.456606 -16.277428 1.457099 # Ca 
216 48 1 2.000000 11.170916 -17.475258 -7.727836 # Ca 
217 48 2 1.123282 11.055403 -20.314381 -4.667619 # C 
218 47 2 1.123282 13.762472 -19.276386 4.592612 # C 
219 44 2 1.123282 15.991728 -18.395670 1.540364 # C 
220 43 2 1.123282 13.610716 -19.283627 -7.722505 # C 
221 46 2 1.123282 11.079615 -16.212420 7.645524 # C 
222 45 2 1.123282 13.498629 -17.291031 -1.566156 # C 
223 48 3 -1.041094 12.306490 -20.249531 -4.994972 # O 
224 48 3 -1.041094 10.256247 -21.097523 -5.318743 # O 
225 48 3 -1.041094 10.514738 -19.488518 -3.635657 # O 
226 47 3 -1.041094 12.902567 -20.273697 3.756598 # O 
227 47 3 -1.041094 12.974241 -18.295406 5.390130 # O 
228 47 3 -1.041094 15.052835 -19.355700 4.653800 # O 
229 44 3 -1.041094 16.826982 -17.804762 2.334714 # O 
230 44 3 -1.041094 14.725218 -18.142990 1.628295 # O 
231 44 3 -1.041094 16.424116 -19.238979 0.657287 # O 
232 43 3 -1.041094 14.032316 -18.341949 -6.939038 # O 
233 43 3 -1.041094 12.341230 -19.492786 -7.857872 # O 
234 43 3 -1.041094 14.460733 -20.014933 -8.370552 # O 
235 46 3 -1.041094 10.366121 -15.422947 8.382112 # O 
236 46 3 -1.041094 12.370794 -16.199879 7.743011 # O 
237 46 3 -1.041094 10.501223 -17.016298 6.810019 # O 
238 45 3 -1.041094 12.770884 -18.033468 -2.337328 # O 
239 45 3 -1.041094 14.789854 -17.368763 -1.623429 # O 
240 45 3 -1.041094 12.935549 -16.471113 -0.736828 # O 
241 49 1 2.000000 18.461840 -18.151888 7.685668 # Ca 
242 50 1 2.000000 16.015902 -19.365093 -1.480503 # Ca 
243 51 1 2.000000 18.448298 -18.400377 -4.612264 # Ca 
244 52 1 2.000000 20.937963 -17.265247 4.573150 # Ca 
245 53 1 2.000000 18.523138 -16.371605 1.430844 # Ca 
246 54 1 2.000000 15.978876 -17.400265 -7.611031 # Ca 
247 54 2 1.123282 16.070116 -20.382736 -4.596792 # C 
248 53 2 1.123282 18.622499 -19.286642 4.504603 # C 
249 50 2 1.123282 20.937277 -18.297783 1.425584 # C 
250 49 2 1.123282 18.442377 -19.445215 -7.576172 # C 
251 52 2 1.123282 15.983156 -15.971527 7.413413 # C 
252 51 2 1.123282 18.450594 -17.494720 -1.644315 # C 
253 54 3 -1.041094 17.361078 -20.468418 -4.645066 # O 
254 54 3 -1.041094 15.343996 -21.081757 -5.408846 # O 
255 54 3 -1.041094 15.419535 -19.478462 -3.702364 # O 
256 53 3 -1.041094 17.746656 -20.264736 3.661332 # O 
257 53 3 -1.041094 17.857748 -18.429291 5.452075 # O 
258 53 3 -1.041094 19.916105 -19.287006 4.444657 # O 
259 50 3 -1.041094 19.650042 -18.403591 1.330461 # O 
260 50 3 -1.041094 21.700914 -18.882748 0.559663 # O 
261 50 3 -1.041094 21.460295 -17.605757 2.386943 # O 
262 49 3 -1.041094 18.974047 -20.338364 -8.348638 # O 
263 49 3 -1.041094 19.197680 -18.687634 -6.847124 # O 
264 49 3 -1.041094 17.155161 -19.311222 -7.532078 # O 
265 52 3 -1.041094 17.271009 -16.108883 7.427550 # O 
266 52 3 -1.041094 15.259386 -16.742577 6.666703 # O 
267 52 3 -1.041094 15.420507 -15.063870 8.145360 # O 
268 51 3 -1.041094 19.739485 -17.401543 -1.729342 # O 
269 51 3 -1.041094 17.792253 -16.685905 -0.877769 # O 
270 51 3 -1.041094 17.820326 -18.396612 -2.326787 # O 
271 55 1 2.000000 23.286474 -18.183441 7.638478 # Ca 
272 56 1 2.000000 20.855841 -19.391806 -1.495580 # Ca 
273 57 1 2.000000 23.451891 -18.158920 -4.462299 # Ca 
274 58 1 2.000000 -23.465633 -17.193911 4.712737 # Ca 
275 59 1 2.000000 23.335463 -16.438488 1.568557 # Ca 
276 60 1 2.000000 20.830114 -17.291773 -7.667550 # Ca 
277 60 2 1.123282 21.037043 -20.324039 -4.573572 # C 
278 59 2 1.123282 23.609804 -19.300838 4.553544 # C 
279 56 2 1.123282 -23.654825 -18.268841 1.681550 # C 
280 55 2 1.123282 23.481443 -19.268469 -7.562426 # C 
281 58 2 1.123282 20.965670 -16.174980 7.597346 # C 
282 57 2 1.123282 23.237669 -17.162666 -1.508703 # C 
283 60 3 -1.041094 22.319426 -20.214567 -4.436021 # O 
284 60 3 -1.041094 20.243273 -19.673534 -3.783570 # O 
285 60 3 -1.041094 20.467714 -21.203259 -5.545259 # O 
286 59 3 -1.041094 22.840246 -20.388960 3.743159 # O 
287 59 3 -1.041094 22.740831 -18.391670 5.352180 # O 
288 59 3 -1.041094 24.903086 -19.251474 4.593911 # O 
289 56 3 -1.041094 -22.982527 -17.400776 2.368627 # O 
290 56 3 -1.041094 -24.908720 -18.466499 1.939630 # O 
291 56 3 -1.041094 -23.074940 -18.937294 0.737468 # O 
292 55 3 -1.041094 22.196547 -19.328320 -7.708911 # O 
293 55 3 -1.041094 24.249735 -20.040157 -8.262962 # O 
294 55 3 -1.041094 23.998640 -18.435860 -6.716620 # O 
295 58 3 -1.041094 20.538683 -17.177666 6.897040 # O 
296 58 3 -1.041094 20.121763 -15.405021 8.205916 # O 
297 58 3 -1.041094 22.235945 -15.943168 7.688201 # O 
298 57 3 -1.041094 22.623175 -16.365623 -0.693878 # O 
299 57 3 -1.041094 22.560572 -17.880505 -2.346751 # O 
300 57 3 -1.041094 24.530149 -17.242355 -1.484073 # O 
301 61 1 2.000000 -20.941360 -13.975799 7.772969 # Ca 
302 62 1 2.000000 -23.628838 -15.123454 -1.474629 # Ca 
303 63 1 2.000000 -20.961403 -14.185736 -4.708787 # Ca 
304 64 1 2.000000 -18.589657 -13.304346 4.539426 # Ca 
305 65 1 2.000000 -21.252926 -12.377640 1.556476 # Ca 
306 66 1 2.000000 -23.447290 -13.202835 -7.843260 # Ca 
307 66 2 1.123282 -23.460527 -16.033470 -4.719258 # C 
308 65 2 1.123282 -21.034914 -15.108843 4.650588 # C 
309 62 2 1.123282 -18.599146 -14.347430 1.508243 # C 
310 61 2 1.123282 -21.031393 -15.142381 -7.828764 # C 
311 64 2 1.123282 -23.424557 -12.064291 7.767516 # C 
312 63 2 1.123282 -21.019733 -13.189272 -1.591382 # C 
313 66 3 -1.041094 -22.923054 -15.280222 -3.812666 # O 
314 66 3 -1.041094 -24.747208 -16.056473 -4.860817 # O 
315 66 3 -1.041094 -22.665878 -16.894291 -5.534698 # O 
316 65 3 -1.041094 -20.282415 -16.119595 3.729489 # O 
317 65 3 -1.041094 -22.518814 -15.175576 4.562354 # O 
318 65 3 -1.041094 -20.414057 -14.338789 5.486463 # O 
319 62 3 -1.041094 -17.305775 -14.320490 1.545358 # O 
320 62 3 -1.041094 -19.285213 -13.525561 2.236478 # O 
321 62 3 -1.041094 -19.206970 -15.198174 0.744305 # O 
322 61 3 -1.041094 -21.837955 -15.915116 -8.483206 # O 
323 61 3 -1.041094 -19.750723 -15.303275 -7.934909 # O 
324 61 3 -1.041094 -21.504614 -14.207547 -7.067301 # O 
325 64 3 -1.041094 -24.716963 -12.041307 7.849069 # O 
326 64 3 -1.041094 -22.844408 -12.824654 6.895082 # O 
327 64 3 -1.041094 -22.713436 -11.326841 8.559617 # O 
328 63 3 -1.041094 -20.294868 -13.812750 -2.463407 # O 
329 63 3 -1.041094 -20.452974 -12.490965 -0.658979 # O 
330 63 3 -1.041094 -22.310961 -13.263336 -1.650259 # O 
331 67 1 2.000000 -16.089016 -14.014949 7.625010 # Ca 
332 68 1 2.000000 -18.654736 -15.236096 -1.432648 # Ca 
333 69 1 2.000000 -16.032219 -14.249367 -4.676149 # Ca 
334 70 1 2.000000 -13.627702 -13.025154 4.552182 # Ca 
335 71 1 2.000000 -16.164558 -12.185940 1.390145 # Ca 
336 72 1 2.000000 -18.585634 -13.161709 -7.817459 # Ca 
337 72 2 1.123282 -18.615843 -16.237656 -4.658574 # C 
338 71 2 1.123282 -16.089565 -14.927039 4.629281 # C 
339 68 2 1.123282 -13.572660 -14.230069 1.408139 # C 
340 67 2 1.123282 -16.174606 -15.382236 -7.629089 # C 
341 70 2 1.123282 -18.521086 -12.331209 7.767200 # C 
342 69 2 1.123282 -16.065113 -13.278399 -1.544428 # C 
343 72 3 -1.041094 -18.005524 -15.411339 -3.870853 # O 
344 72 3 -1.041094 -19.908287 -16.226185 -4.733401 # O 
345 72 3 -1.041094 -17.895779 -17.214813 -5.411798 # O 
346 71 3 -1.041094 -15.235602 -15.918556 3.778396 # O 
347 71 3 -1.041094 -17.549776 -15.218591 4.641120 # O 
348 71 3 -1.041094 -15.555738 -13.983213 5.335851 # O 
349 68 3 -1.041094 -14.098279 -13.349825 2.198562 # O 
350 68 3 -1.041094 -14.332494 -14.964999 0.660374 # O 
351 68 3 -1.041094 -12.286618 -14.374923 1.364821 # O 
352 67 3 -1.041094 -16.846184 -14.560938 -6.887621 # O 
353 67 3 -1.041094 -16.796652 -16.233639 -8.380579 # O 
354 67 3 -1.041094 -14.879529 -15.351175 -7.620049 # O 
355 70 3 -1.041094 -17.525694 -11.738274 8.344548 # O 
356 70 3 -1.041094 -19.731178 -11.928736 7.988366 # O 
357 70 3 -1.041094 -18.305336 -13.326553 6.967736 # O 
358 69 3 -1.041094 -17.356756 -13.342882 -1.483437 # O 
359 69 3 -1.041094 -15.418384 -14.020239 -2.386295 # O 
360 69 3 -1.041094 -15.418585 -12.473125 -0.762420 # O 
361 73 1 2.000000 -11.227601 -14.083605 7.569957 # Ca 
362 74 1 2.000000 -13.736665 -15.345660 -1.634621 # Ca 
363 75 1 2.000000 -11.112515 -14.299751 -4.588703 # Ca 
364 76 1 2.000000 -8.646283 -13.204506 4.698659 # Ca 
365 77 1 2.000000 -11.180266 -12.332817 1.414836 # Ca 
366 78 1 2.000000 -13.569878 -13.376549 -7.760081 # Ca 
367 78 2 1.123282 -13.615539 -16.240952 -4.576357 # C 
368 77 2 1.123282 -11.157950 -15.138670 4.671632 # C 
369 74 2 1.123282 -8.704918 -14.326047 1.543265 # C 
370 73 2 1.123282 -11.104929 -15.248658 -7.812181 # C 
371 76 2 1.123282 -13.597370 -11.943258 7.535394 # C 
372 75 2 1.123282 -11.143446 -13.182838 -1.625413 # C 
373 78 3 -1.041094 -12.998524 -17.055939 -5.372287 # O 
374 78 3 -1.041094 -12.938087 -15.467775 -3.789066 # O 
375 78 3 -1.041094 -15.041719 -16.216469 -4.499474 # O 
376 77 3 -1.041094 -10.649768 -16.221395 3.670104 # O 
377 77 3 -1.041094 -12.640047 -15.025268 4.763602 # O 
378 77 3 -1.041094 -10.352608 -14.457791 5.423686 # O 
379 74 3 -1.041094 -9.416167 -13.581242 2.328544 # O 
380 74 3 -1.041094 -9.286407 -15.115466 0.698182 # O 
381 74 3 -1.041094 -7.412489 -14.282131 1.604260 # O 
382 73 3 -1.041094 -12.022165 -15.943579 -8.405012 # O 
383 73 3 -1.041094 -9.857102 -15.449469 -8.093162 # O 
384 73 3 -1.041094 -11.435811 -14.351971 -6.938335 # O 
385 76 3 -1.041094 -13.044602 -11.042931 8.283742 # O 
386 76 3 -1.041094 -12.862264 -12.712793 6.797889 # O 
387 76 3 -1.041094 -14.885131 -12.074856 7.525706 # O 
388 75 3 -1.041094 -10.421201 -13.991080 -2.334225 # O 
389 75 3 -1.041094 -10.577703 -12.374939 -0.786335 # O 
390 75 3 -1.041094 -12.432263 -13.182735 -1.756185 # O 
391 79 1 2.000000 -6.094700 -14.172509 7.728787 # Ca 
392 80 1 2.000000 -8.618193 -15.308259 -1.478948 # Ca 
393 81 1 2.000000 -6.236429 -14.164992 -4.531655 # Ca 
394 82 1 2.000000 -3.798275 -13.419178 4.519120 # Ca 
395 83 1 2.000000 -6.462713 -12.222445 1.438012 # Ca 
396 84 1 2.000000 -8.608493 -13.299500 -7.493673 # Ca 
397 84 2 1.123282 -8.691711 -16.280235 -4.504660 # C 
398 83 2 1.123282 -6.161055 -15.153650 4.657182 # C 
399 80 2 1.123282 -3.903555 -14.140027 1.403619 # C 
400 79 2 1.123282 -6.091242 -15.350064 -7.547058 # C 
401 82 2 1.123282 -8.785446 -12.120293 7.624135 # C 
402 81 2 1.123282 -6.224667 -13.202074 -1.510133 # C 
403 84 3 -1.041094 -8.081612 -17.072596 -5.327244 # O 
404 84 3 -1.041094 -8.009844 -15.581798 -3.653399 # O 
405 84 3 -1.041094 -10.117149 -16.202013 -4.469068 # O 
406 83 3 -1.041094 -5.428173 -16.041229 3.604289 # O 
407 83 3 -1.041094 -7.647308 -15.196548 4.578708 # O 
408 83 3 -1.041094 -5.524496 -14.503185 5.577834 # O 
409 80 3 -1.041094 -4.616762 -14.923628 0.658994 # O 
410 80 3 -1.041094 -4.483082 -13.309618 2.209603 # O 
411 80 3 -1.041094 -2.611063 -14.188646 1.341462 # O 
412 79 3 -1.041094 -6.767435 -14.540912 -6.795413 # O 
413 79 3 -1.041094 -4.796986 -15.323884 -7.526685 # O 
414 79 3 -1.041094 -6.709530 -16.186350 -8.318056 # O 
415 82 3 -1.041094 -8.105961 -11.148884 8.143497 # O 
416 82 3 -1.041094 -10.075322 -12.143696 7.739964 # O 
417 82 3 -1.041094 -8.175554 -13.068949 6.987794 # O 
418 81 3 -1.041094 -5.516035 -12.407881 -0.773685 # O 
419 81 3 -1.041094 -7.516302 -13.182772 -1.424698 # O 
420 81 3 -1.041094 -5.641603 -14.014875 -2.331292 # O 
421 85 1 2.000000 -1.317131 -14.164061 7.640265 # Ca 
422 86 1 2.000000 -3.843229 -15.306095 -1.469367 # Ca 
423 87 1 2.000000 -1.302448 -14.203877 -4.302266 # Ca 
424 88 1 2.000000 1.234785 -13.123909 4.607659 # Ca 
425 89 1 2.000000 -1.344715 -12.244726 1.675580 # Ca 
426 90 1 2.000000 -3.492519 -13.299330 -7.572526 # Ca 
427 90 2 1.123282 -3.780210 -16.494001 -4.453597 # C 
428 89 2 1.123282 -1.092953 -15.009342 4.517428 # C 
429 86 2 1.123282 1.249317 -14.241868 1.597009 # C 
430 85 2 1.123282 -1.218056 -15.140457 -7.383073 # C 
431 88 2 1.123282 -3.742548 -12.268665 7.617957 # C 
432 87 2 1.123282 -1.311314 -13.326389 -1.416703 # C 
433 90 3 -1.041094 -3.023129 -15.787051 -3.676643 # O 
434 90 3 -1.041094 -3.248800 -17.323711 -5.294757 # O 
435 90 3 -1.041094 -5.199661 -16.337273 -4.449597 # O 
436 89 3 -1.041094 -0.296009 -15.853806 3.475732 # O 
437 89 3 -1.041094 -2.572321 -15.149842 4.427320 # O 
438 89 3 -1.041094 -0.507246 -14.313019 5.438502 # O 
439 86 3 -1.041094 2.543554 -14.280622 1.636525 # O 
440 86 3 -1.041094 0.603073 -13.420942 2.359992 # O 
441 86 3 -1.041094 0.602776 -15.025270 0.792974 # O 
442 85 3 -1.041094 -2.002745 -15.850416 -8.129806 # O 
443 85 3 -1.041094 0.065683 -15.281358 -7.475985 # O 
444 85 3 -1.041094 -1.717541 -14.289558 -6.545382 # O 
445 88 3 -1.041094 -3.261671 -13.187353 6.842280 # O 
446 88 3 -1.041094 -5.023046 -12.101866 7.707526 # O 
447 88 3 -1.041094 -2.942560 -11.516657 8.303140 # O 
448 87 3 -1.041094 -2.578756 -13.279795 -1.678276 # O 
449 87 3 -1.041094 -0.552511 -14.172238 -2.037431 # O 
450 87 3 -1.041094 -0.803308 -12.526670 -0.533227 # O 
451 91 1 2.000000 3.676497 -14.266066 7.908948 # Ca 
452 92 1 2.000000 1.298328 -15.415202 -1.419039 # Ca 
453 93 1 2.000000 3.734718 -14.439978 -4.358791 # Ca 
454 94 1 2.000000 6.172071 -13.311476 4.825654 # Ca 
455 95 1 2.000000 3.769434 -12.288925 1.596011 # Ca 
456 96 1 2.000000 1.378090 -13.361656 -7.423281 # Ca 
457 96 2 1.123282 1.212652 -16.338413 -4.415623 # C 
458 95 2 1.123282 3.749659 -15.200094 4.821015 # C 
459 92 2 1.123282 6.201725 -14.242084 1.625930 # C 
460 91 2 1.123282 3.807762 -15.503032 -7.421232 # C 
461 94 2 1.123282 1.201498 -12.083948 7.602332 # C 
462 93 2 1.123282 3.635809 -13.261717 -1.356209 # C 
463 96 3 -1.041094 1.922251 -15.720456 -3.525860 # O 
464 96 3 -1.041094 -0.064299 -16.134163 -4.481660 # O 
465 96 3 -1.041094 1.799314 -17.295584 -5.298493 # O 
466 95 3 -1.041094 4.478081 -16.120430 3.793647 # O 
467 95 3 -1.041094 2.265150 -15.302387 4.801108 # O 
468 95 3 -1.041094 4.393013 -14.473398 5.678311 # O 
469 92 3 -1.041094 5.485010 -14.934071 0.797742 # O 
470 92 3 -1.041094 5.627012 -13.451263 2.473943 # O 
471 92 3 -1.041094 7.492155 -14.343681 1.606736 # O 
472 91 3 -1.041094 3.234369 -16.351295 -8.213606 # O 
473 91 3 -1.041094 3.088459 -14.731402 -6.669755 # O 
474 91 3 -1.041094 5.099386 -15.425499 -7.380139 # O 
475 94 3 -1.041094 1.913836 -12.949141 6.954814 # O 
476 94 3 -1.041094 1.774738 -11.084400 8.192264 # O 
477 94 3 -1.041094 -0.085484 -12.218332 7.660083 # O 
478 93 3 -1.041094 2.345840 -13.327940 -1.258964 # O 
479 93 3 -1.041094 4.272081 -14.092354 -2.117484 # O 
480 93 3 -1.041094 4.288752 -12.362583 -0.691681 # O 
481 97 1 2.000000 8.627878 -14.047994 7.841212 # Ca 
482 98 1 2.000000 6.214251 -15.250141 -1.484664 # Ca 
483 99 1 2.000000 8.677095 -14.236074 -4.562788 # Ca 
484 100 1 2.000000 11.007002 -13.166962 4.506995 # Ca 
485 101 1 2.000000 8.530062 -12.272596 1.613381 # Ca 
486 102 1 2.000000 6.410225 -13.331455 -7.364578 # Ca 
487 102 2 1.123282 6.224997 -16.360531 -4.401998 # C 
488 101 2 1.123282 8.578207 -15.111605 4.707576 # C 
489 98 2 1.123282 11.048471 -14.246114 1.443957 # C 
490 97 2 1.123282 8.761290 -15.507742 -7.610206 # C 
491 100 2 1.123282 6.113520 -12.286444 7.790538 # C 
492 99 2 1.123282 8.574160 -13.170040 -1.561193 # C 
493 102 3 -1.041094 6.858324 -17.181999 -5.176078 # O 
494 102 3 -1.041094 6.884155 -15.508856 -3.683146 # O 
495 102 3 -1.041094 4.803442 -16.409885 -4.271940 # O 
496 101 3 -1.041094 9.375086 -16.031559 3.730956 # O 
497 101 3 -1.041094 7.099649 -15.275873 4.645802 # O 
498 101 3 -1.041094 9.164610 -14.335023 5.561507 # O 
499 98 3 -1.041094 10.358652 -13.519354 2.263936 # O 
500 98 3 -1.041094 10.446741 -15.058660 0.636170 # O 
501 98 3 -1.041094 12.340582 -14.159029 1.431878 # O 
502 97 3 -1.041094 8.035116 -16.454254 -8.114025 # O 
503 97 3 -1.041094 10.020891 -15.432502 -7.901260 # O 
504 97 3 -1.041094 8.227732 -14.637689 -6.814108 # O 
505 100 3 -1.041094 4.825037 -12.280825 7.914071 # O 
506 100 3 -1.041094 6.828365 -11.412973 8.425235 # O 
507 100 3 -1.041094 6.687845 -13.163420 7.031278 # O 
508 99 3 -1.041094 9.296190 -13.924300 -2.327222 # O 
509 99 3 -1.041094 9.143496 -12.346722 -0.740484 # O 
510 99 3 -1.041094 7.282103 -13.239241 -1.617095 # O 
511 103 1 2.000000 13.588350 -14.041711 7.600091 # Ca 
512 104 1 2.000000 11.112791 -15.235524 -1.520307 # Ca 
513 105 1 2.000000 13.630560 -14.234238 -4.693244 # Ca 
514 106 1 2.000000 16.003672 -13.089493 4.532205 # Ca 
515 107 1 2.000000 13.515753 -12.279234 1.439260 # Ca 
516 108 1 2.000000 11.070684 -13.430246 -7.726936 # Ca 
517 108 2 1.123282 11.024431 -16.256054 -4.611722 # C 
518 107 2 1.123282 13.580835 -15.059350 4.641583 # C 
519 104 2 1.123282 16.076708 -14.341494 1.528758 # C 
520 103 2 1.123282 13.589678 -15.252586 -7.633087 # C 
521 106 2 1.123282 10.999945 -12.004793 7.679023 # C 
522 105 2 1.123282 13.662470 -13.231920 -1.638116 # C 
523 108 3 -1.041094 11.716997 -15.436684 -3.887454 # O 
524 108 3 -1.041094 9.738508 -16.316658 -4.471738 # O 
525 108 3 -1.041094 11.656946 -17.149555 -5.529664 # O 
526 107 3 -1.041094 14.229803 -16.017761 3.595498 # O 
527 107 3 -1.041094 12.104799 -15.203952 4.784488 # O 
528 107 3 -1.041094 14.283804 -14.266447 5.385392 # O 
529 104 3 -1.041094 17.367910 -14.352360 1.619279 # O 
530 104 3 -1.041094 15.481279 -15.120397 0.682643 # O 
531 104 3 -1.041094 15.380995 -13.551732 2.282121 # O 
532 103 3 -1.041094 13.029631 -14.460917 -6.774755 # O 
533 103 3 -1.041094 12.867773 -16.089533 -8.308549 # O 
534 103 3 -1.041094 14.870264 -15.207080 -7.815690 # O 
535 106 3 -1.041094 11.640406 -12.847279 6.934554 # O 
536 106 3 -1.041094 11.653196 -11.163830 8.416331 # O 
537 106 3 -1.041094 9.704786 -12.001795 7.687486 # O 
538 105 3 -1.041094 14.354570 -13.998899 -2.419175 # O 
539 105 3 -1.041094 14.263773 -12.436443 -0.812833 # O 
540 105 3 -1.041094 12.368952 -13.262789 -1.680802 # O 
541 109 1 2.000000 18.578901 -13.966722 7.375045 # Ca 
542 110 1 2.000000 16.013170 -15.305631 -1.504910 # Ca 
543 111 1 2.000000 18.375147 -14.189325 -4.494942 # Ca 
544 112 1 2.000000 21.092825 -13.285698 4.400565 # Ca 
545 113 1 2.000000 18.334402 -12.297962 1.370231 # Ca 
546 114 1 2.000000 16.059393 -13.297157 -7.729966 # Ca 
547 114 2 1.123282 16.015718 -16.346333 -4.571795 # C 