ITEM: TIMESTEP
0
ITEM: NUMBER OF ATOMS
3000
ITEM: BOX BOUNDS pp pp pp
0 31
0 31
0 31
ITEM: ATOMS id mol type q x y z fx fy fz vx vy vz 
1 1 1 -0.8476 0 0 0 70.8453 -33.3029 1.66533e-14 -0.00521802 0.000978647 -0.000203066 
2 1 2 0.4238 0.81649 0.577359 0 -4.60266 -8.40904 4.996e-15 -0.00315934 0.00599273 0.000527179 
301 101 1 -0.8476 0 0 3.1 -38.189 -5.80735 -1.20217e-05 0.00450463 -0.000864923 -0.00371733 
302 101 2 0.4238 0.81649 0.577359 3.1 -3.21457 16.3935 5.5591e-06 0.00529895 -0.0093943 0.0193248 
601 201 1 -0.8476 0 0 6.2 -31.7244 11.1109 1.93456e-05 -0.000243966 0.00402542 0.0045953 
602 201 2 0.4238 0.81649 0.577359 6.2 -10.3311 5.64871 -8.94512e-06 -0.00127906 0.00768713 -0.0131849 
31 11 1 -0.8476 0 3.1 0 -14.0249 -6.75047 1.24345e-14 -0.00150856 -0.00152947 -0.00161869 
32 11 2 0.4238 0.81649 3.67736 0 36.1094 8.34934 1.11022e-14 -0.0114277 -0.0130149 -0.00184344 
331 111 1 -0.8476 0 3.1 3.1 36.9073 48.885 -1.30219e-06 -0.00139715 -0.00147059 -0.00520647 
332 111 2 0.4238 0.81649 3.67736 3.1 4.12319 -37.476 -2.13384e-06 1.43102e-05 0.0122626 -0.00129126 
631 211 1 -0.8476 0 3.1 6.2 -1.14092 1.05616 2.09537e-06 -0.0061837 -0.00141119 -0.000986358 
632 211 2 0.4238 0.81649 3.67736 6.2 14.7428 -0.109236 3.43233e-06 -0.0051147 -0.0120069 -0.0109974 
61 21 1 -0.8476 0 6.2 0 6.85487 14.3662 3.28626e-14 -0.000403511 -0.00243329 -0.00336427 
62 21 2 0.4238 0.81649 6.77736 0 -9.52771 -9.6194 3.10862e-15 0.000308445 0.00665966 0.00232653 
361 121 1 -0.8476 0 6.2 3.1 26.6984 -63.633 -1.68744e-05 -0.00328776 0.00261233 -0.0010577 
362 121 2 0.4238 0.81649 6.77736 3.1 5.7126 22.3643 3.3602e-06 -0.003128 -0.0109877 -0.0060575 
661 221 1 -0.8476 0 6.2 6.2 -26.4529 33.0913 2.71487e-05 0.00155171 0.00359903 -0.00229386 
662 221 2 0.4238 0.81649 6.77736 6.2 -4.07104 -7.20559 -5.40824e-06 -0.00230332 0.0141788 -0.00576326 
4 2 1 -0.8476 3.1 0 0 -83.6301 -75.6642 2.59792e-14 0.00390173 0.000248404 0.00382484 
5 2 2 0.4238 3.91649 0.577359 0 47.4278 67.3744 -3.06699e-15 -0.0255391 -0.0196767 -0.011515 
304 102 1 -0.8476 3.1 0 3.1 -3.83812 -2.79757 1.43125e-06 -0.00467039 -0.00268457 0.00379724 
305 102 2 0.4238 3.91649 0.577359 3.1 17.3212 2.7297 5.22464e-06 -0.0157778 0.000869758 -0.0144021 
604 202 1 -0.8476 3.1 0 6.2 -21.4665 -33.4122 -2.30116e-06 -0.00135 -0.000314193 -0.000632136 
605 202 2 0.4238 3.91649 0.577359 6.2 -22.8032 24.2697 -8.40297e-06 0.00728961 -0.0109194 -0.00485262 
34 12 1 -0.8476 3.1 3.1 0 18.1009 11.4609 2.94209e-14 -0.00178413 0.00119833 0.00685269 
35 12 2 0.4238 3.91649 3.67736 0 3.92602 -12.1285 3.16414e-15 -0.0114268 0.0171796 -0.0175718 
334 112 1 -0.8476 3.1 3.1 3.1 -38.9289 -9.96682 1.21419e-05 0.0030547 -0.00231971 -0.000405284 
335 112 2 0.4238 3.91649 3.67736 3.1 43.924 18.7489 -2.46764e-06 -0.014638 -0.0125751 -0.00102152 
634 212 1 -0.8476 3.1 3.1 6.2 8.70634 121.349 -1.95372e-05 0.00120291 0.00283415 0.00563646 
635 212 2 0.4238 3.91649 3.67736 6.2 28.4953 -63.7508 3.97341e-06 -0.0126441 0.0356026 0.00225428 
64 22 1 -0.8476 3.1 6.2 0 -4.26082 -2.73698 2.24265e-14 0.00259948 -0.00181446 0.00117357 
65 22 2 0.4238 3.91649 6.77736 0 -10.3311 2.84849 4.60743e-15 0.00808475 -0.00517922 0.0131853 
364 122 1 -0.8476 3.1 6.2 3.1 21.5405 24.6669 -3.42465e-06 -0.00229987 -0.000393976 -0.00244416 
365 122 2 0.4238 3.91649 6.77736 3.1 -43.1201 -19.9758 3.02612e-06 0.0223591 -0.00058535 -0.0118605 
664 222 1 -0.8476 3.1 6.2 6.2 -44.1432 -30.3717 5.50696e-06 0.000684949 -0.00104034 -0.00614807 
665 222 2 0.4238 3.91649 6.77736 6.2 4.10985 30.7667 -4.86672e-06 -0.00148065 -0.0163847 -0.027519 
7 3 1 -0.8476 6.2 0 0 16.6872 18.9774 3.40214e-14 0.000159834 0.00357001 -0.00114638 
8 3 2 0.4238 7.01649 0.577359 0 19.2335 -15.379 3.67761e-16 0.0041725 -0.00663406 -0.00140786 
307 103 1 -0.8476 6.2 0 3.1 71.7677 7.37257 -6.97277e-06 0.000267946 0.00314333 0.000537608 
308 103 2 0.4238 7.01649 0.577359 3.1 -32.8859 -29.0509 -2.23072e-07 0.0136961 0.0181264 -0.010648 
607 203 1 -0.8476 6.2 0 6.2 -30.7905 -35.176 1.1221e-05 -0.00374381 0.00546596 0.00689841 
608 203 2 0.4238 7.01649 0.577359 6.2 8.42795 28.484 3.55413e-07 -0.00463541 -0.0121732 0.00927265 
37 13 1 -0.8476 6.2 3.1 0 23.8577 7.96722 3.20403e-14 0.00406006 -5.43924e-05 -0.00453796 
38 13 2 0.4238 7.01649 3.67736 0 -3.11276 -12.3813 5.41407e-15 0.00740698 0.00304617 0.00650341 
337 113 1 -0.8476 6.2 3.1 3.1 1.52581 24.2579 3.7434e-06 -0.00234872 0.00306997 0.00235843 
338 113 2 0.4238 7.01649 3.67736 3.1 -18.9493 -12.631 -7.91459e-06 0.00194939 0.0133634 -0.0166961 
637 213 1 -0.8476 6.2 3.1 6.2 -33.6897 13.7501 -6.02388e-06 0.00255495 -0.00307793 0.00166879 
638 213 2 0.4238 7.01649 3.67736 6.2 14.7043 5.07377 1.27306e-05 -0.00421385 -0.00576138 -0.0174116 
67 23 1 -0.8476 6.2 6.2 0 -25.8884 -0.031372 3.93609e-14 0.00133894 -0.00122765 -9.32312e-05 
68 23 2 0.4238 7.01649 6.77736 0 34.7394 9.17817 2.39045e-15 -0.0123159 -0.0072685 0.0101197 
367 123 1 -0.8476 6.2 6.2 3.1 59.1304 26.136 -1.18267e-05 0.00059791 -0.00134336 -0.00241462 
368 123 2 0.4238 7.01649 6.77736 3.1 -43.6319 -33.9649 -2.41958e-06 0.0154382 0.019699 0.0136162 
667 223 1 -0.8476 6.2 6.2 6.2 61.1335 13.1573 1.9026e-05 -0.00306355 -0.00211654 0.000528635 
668 223 2 0.4238 7.01649 6.77736 6.2 -84.7533 -28.1838 3.88844e-06 0.0366546 0.00555773 -0.00917175 
6 2 2 0.4238 2.28351 0.577359 0 36.1866 8.26513 6.43929e-15 -0.0206 -0.0162321 -0.0123081 
306 102 2 0.4238 2.28351 0.577359 3.1 -13.4989 0.0432121 -4.54837e-07 -0.00264963 -0.00778039 0.00687659 
606 202 2 0.4238 2.28351 0.577359 6.2 44.254 9.11779 7.30463e-07 -0.0204993 -0.00556515 -0.0133996 
36 12 2 0.4238 2.28351 3.67736 0 -22.0426 0.698509 5.10703e-15 0.000244802 -0.00992834 0.0137782 
336 112 2 0.4238 2.28351 3.67736 3.1 -5.01081 -8.75113 -8.14593e-06 0.00568795 0.00325551 0.00148858 
636 212 2 0.4238 2.28351 3.67736 6.2 -37.2174 -57.5669 1.31049e-05 0.015473 0.0251594 -0.0339489 
66 22 2 0.4238 2.28351 6.77736 0 14.5762 -0.136893 3.33067e-15 -0.00216946 -0.000806606 0.0244955 
366 122 2 0.4238 2.28351 6.77736 3.1 21.5639 -4.71646 -2.6511e-06 -0.00393941 0.0111699 0.0120484 
666 222 2 0.4238 2.28351 6.77736 6.2 40.0176 -0.420389 4.26309e-06 -0.0161899 -0.000429856 -0.00991212 
9 3 2 0.4238 5.38351 0.577359 0 -35.8955 -3.62311 1.38431e-15 0.0278627 0.022 0.0126271 
309 103 2 0.4238 5.38351 0.577359 3.1 -38.8565 21.6536 8.93953e-06 0.0164229 -0.00840287 0.00876881 
609 203 2 0.4238 5.38351 0.577359 6.2 22.3878 6.66731 -1.43796e-05 -0.0101094 0.00640765 -0.0115248 
39 13 2 0.4238 5.38351 3.67736 0 -20.7197 4.44501 2.95597e-15 0.0148179 0.000463586 -0.00568282 
339 113 2 0.4238 5.38351 3.67736 3.1 17.4487 -11.596 1.24611e-06 -0.0129741 0.00358104 -0.00206893 
639 213 2 0.4238 5.38351 3.67736 6.2 19.0106 -18.793 -2.0014e-06 -0.0058602 0.00555924 -0.00229298 
69 23 2 0.4238 5.38351 6.77736 0 -8.82576 -9.17217 4.08701e-15 0.00659381 0.00457322 -0.0263926 
369 123 2 0.4238 5.38351 6.77736 3.1 -15.4733 7.80353 6.73938e-06 0.00386134 -0.0111308 0.0136833 
669 223 2 0.4238 5.38351 6.77736 6.2 23.6451 15.0011 -1.08407e-05 -0.00829466 -0.00393879 -0.00767996 
10 4 1 -0.8476 9.3 0 0 -37.9101 30.1971 2.27596e-14 0.0089623 -0.00397291 -0.00260305 
11 4 2 0.4238 10.1165 0.577359 0 65.082 -1.72939 -1.55431e-15 -0.0198386 -0.0019442 -0.021408 
310 104 1 -0.8476 9.3 0 3.1 -63.2925 -10.2599 -6.97277e-06 0.00255063 0.000495441 0.00407367 
311 104 2 0.4238 10.1165 0.577359 3.1 45.3974 27.4734 8.93953e-06 -0.0195241 -0.00897147 0.00113745 
610 204 1 -0.8476 9.3 0 6.2 22.4756 -1.9439 1.1221e-05 -0.00344236 -0.000706286 0.000526832 
611 204 2 0.4238 10.1165 0.577359 6.2 -59.2678 -7.00891 -1.43796e-05 0.0202371 0.00396614 0.0139418 
40 14 1 -0.8476 9.3 3.1 0 -57.0346 64.3872 1.92069e-14 -0.00280234 -0.00202199 0.00609678 
41 14 2 0.4238 10.1165 3.67736 0 57.2489 -12.0349 5.55112e-16 -0.0217255 -0.00453719 0.00989911 
340 114 1 -0.8476 9.3 3.1 3.1 17.3215 -3.19963 3.7434e-06 0.00330832 0.000131863 -0.00129785 
341 114 2 0.4238 10.1165 3.67736 3.1 -2.57159 -4.53095 1.24611e-06 0.00832259 -0.00308886 -0.00393495 
640 214 1 -0.8476 9.3 3.1 6.2 47.053 -49.4806 -6.02388e-06 6.21972e-05 -0.000108045 0.00739177 
641 214 2 0.4238 10.1165 3.67736 6.2 -9.32249 8.09763 -2.0014e-06 0.00333178 -0.00230057 -0.000567046 
70 24 1 -0.8476 9.3 6.2 0 55.4113 33.2406 3.07532e-14 -0.00348663 0.00116291 -0.00130121 
71 24 2 0.4238 10.1165 6.77736 0 -10.5543 -36.2463 2.22045e-15 0.00466941 0.0137592 -0.00219673 
370 124 1 -0.8476 9.3 6.2 3.1 3.27708 -109.971 -1.18267e-05 0.00306304 -0.00310989 -0.00186856 
371 124 2 0.4238 10.1165 6.77736 3.1 -13.7159 53.7924 6.73938e-06 0.00580369 -0.0250155 0.0217107 
670 224 1 -0.8476 9.3 6.2 6.2 13.7121 -43.5445 1.9026e-05 -0.00259204 0.000441408 0.00012661 
671 224 2 0.4238 10.1165 6.77736 6.2 7.12414 16.8895 -1.08407e-05 0.00715175 -0.0260078 0.00117639 
13 5 1 -0.8476 12.4 0 0 72.6942 72.9584 3.4639e-14 -0.000139005 -0.00309984 -0.00501678 
14 5 2 0.4238 13.2165 0.577359 0 -20.7748 -62.1796 8.88178e-16 0.00901834 0.0265038 -0.00032317 
313 105 1 -0.8476 12.4 0 3.1 73.052 -14.5877 1.43125e-06 -0.0064583 -0.00491076 -0.0030713 
314 105 2 0.4238 13.2165 0.577359 3.1 -12.2331 -18.5331 -4.54837e-07 0.00185731 0.000512204 -0.00405829 
613 205 1 -0.8476 12.4 0 6.2 27.3437 -11.9764 -2.30116e-06 -0.00100113 0.00152634 -0.000896711 
614 205 2 0.4238 13.2165 0.577359 6.2 -24.4089 -3.67802 7.30463e-07 0.00109816 0.0141269 -0.019911 
43 15 1 -0.8476 12.4 3.1 0 -0.806004 -7.92806 2.4869e-14 -0.00468001 -0.00279427 -0.00331984 
44 15 2 0.4238 13.2165 3.67736 0 36.6131 4.27822 6.21725e-15 -0.0189191 -0.00628357 0.00493025 
343 115 1 -0.8476 12.4 3.1 3.1 1.36022 4.45016 1.21419e-05 -0.00436215 -0.000633452 0.000351603 
344 115 2 0.4238 13.2165 3.67736 3.1 -13.5321 -2.6768 -8.14593e-06 0.00867511 -0.0102084 0.00635439 
643 215 1 -0.8476 12.4 3.1 6.2 39.9356 29.5309 -1.95372e-05 -0.0032931 -0.0135764 0.00337925 
644 215 2 0.4238 13.2165 3.67736 6.2 -28.0256 -28.8559 1.31049e-05 0.0117175 -0.00430051 -0.00576222 
73 25 1 -0.8476 12.4 6.2 0 9.77798 -18.061 3.90799e-14 -0.00504722 0.00104608 0.00812439 
74 25 2 0.4238 13.2165 6.77736 0 34.1331 5.57447 7.99361e-15 -0.0244694 0.00570142 0.0189834 
373 125 1 -0.8476 12.4 6.2 3.1 -13.1388 13.5128 -3.42465e-06 -0.00228996 0.000286374 -0.00135651 
374 125 2 0.4238 13.2165 6.77736 3.1 0.198373 -2.10995 -2.6511e-06 -0.00728164 0.00786638 -0.00120582 
673 225 1 -0.8476 12.4 6.2 6.2 1.13668 80.3749 5.50696e-06 -0.00501106 -0.00576782 0.00400788 
674 225 2 0.4238 13.2165 6.77736 6.2 12.0229 -40.5882 4.26309e-06 -0.0141324 0.0189489 0.00810391 
12 4 2 0.4238 8.48351 0.577359 0 -27.1972 -28.4924 6.92588e-16 0.0188563 0.00799628 0.00411812 
312 104 2 0.4238 8.48351 0.577359 3.1 17.8699 -17.2381 -2.23072e-07 -0.0080783 0.00509023 -0.00263069 
612 204 2 0.4238 8.48351 0.577359 6.2 36.7669 8.92815 3.55413e-07 -0.0190136 -0.00629985 -0.0174536 
42 14 2 0.4238 8.48351 3.67736 0 -0.239558 -52.3214 1.96501e-15 0.00234113 0.0303537 0.0117246 
342 114 2 0.4238 8.48351 3.67736 3.1 -14.7752 7.76149 -7.91459e-06 0.0136089 0.0016955 0.0122868 
642 214 2 0.4238 8.48351 3.67736 6.2 -37.7558 41.4139 1.27306e-05 0.0151682 -0.0211594 0.00497959 
72 24 2 0.4238 8.48351 6.77736 0 -44.8823 2.98035 1.91427e-15 0.0189445 0.00409575 -0.00123834 
372 124 2 0.4238 8.48351 6.77736 3.1 10.4136 56.1537 -2.41958e-06 -0.00412842 -0.0339143 0.0131206 
672 224 2 0.4238 8.48351 6.77736 6.2 -20.8615 26.6297 3.88844e-06 0.019653 0.00579413 0.0138342 
15 5 2 0.4238 11.5835 0.577359 0 -51.9037 -10.8034 -1.55431e-15 0.0219678 0.00120762 0.00522198 
315 105 2 0.4238 11.5835 0.577359 3.1 -60.8032 33.0962 5.22464e-06 0.0220534 -0.0172125 -0.0107021 
615 205 2 0.4238 11.5835 0.577359 6.2 -2.91908 15.6298 -8.40297e-06 -0.00689628 -0.0169387 0.0113817 
45 15 2 0.4238 11.5835 3.67736 0 -35.7914 3.68076 -1.11022e-15 0.0113066 -0.00302721 -0.0117162 
345 115 2 0.4238 11.5835 3.67736 3.1 12.1876 -1.74246 -2.46764e-06 -0.00147821 0.0107516 -0.0135745 
645 215 2 0.4238 11.5835 3.67736 6.2 -11.8943 -0.644051 3.97341e-06 0.00525127 -0.00908252 0.0123207 
75 25 2 0.4238 11.5835 6.77736 0 -43.8953 12.4612 3.33067e-15 0.00816953 -0.0121948 0.00518487 
375 125 2 0.4238 11.5835 6.77736 3.1 12.9561 -11.4282 3.02612e-06 -0.012466 -0.00105133 -0.0054459 
675 225 2 0.4238 11.5835 6.77736 6.2 -13.1438 -39.812 -4.86672e-06 -0.00351566 0.0070222 -0.00389062 
18 6 2 0.4238 14.6835 0.577359 0 4.16648 -8.49333 1.77636e-15 -0.0024865 0.00454161 0.00196008 
318 106 2 0.4238 14.6835 0.577359 3.1 17.8399 -14.7877 5.5591e-06 -0.0051247 -0.00148542 0.0243836 
618 206 2 0.4238 14.6835 0.577359 6.2 2.39059 -22.7442 -8.94512e-06 0.000689821 0.00948679 -0.0159141 
48 16 2 0.4238 14.6835 3.67736 0 56.4721 -22.7004 4.44089e-15 -0.0241095 0.00783204 0.0142828 
348 116 2 0.4238 14.6835 3.67736 3.1 -33.3762 51.6149 -2.13384e-06 0.021273 -0.012385 -0.00516364 
648 216 2 0.4238 14.6835 3.67736 6.2 33.7428 -5.94022 3.43233e-06 -0.0175176 -0.00449974 0.000274051 
78 26 2 0.4238 14.6835 6.77736 0 29.2923 62.0018 4.44089e-15 -0.00489532 -0.0134173 0.00382729 
378 126 2 0.4238 14.6835 6.77736 3.1 -45.6589 20.4901 3.3602e-06 0.0159126 -0.0163794 -0.027952 
678 226 2 0.4238 14.6835 6.77736 6.2 52.3109 -12.9251 -5.40824e-06 -0.0267337 -0.00389864 0.0143882 
91 31 1 -0.8476 0 9.3 0 16.1709 -33.7498 1.64313e-14 -0.000336312 0.0010922 0.00346982 
92 31 2 0.4238 0.81649 9.87736 0 -13.9481 11.1623 9.32587e-15 -0.00120356 0.00533549 0.00426782 
391 131 1 -0.8476 0 9.3 3.1 0.381285 114.405 -2.63808e-06 0.00200735 -0.00219124 -0.000529269 
392 131 2 0.4238 0.81649 9.87736 3.1 22.6028 -57.3326 2.24057e-06 -0.008543 0.0262329 0.00333093 
691 231 1 -0.8476 0 9.3 6.2 -27.2829 44.0874 4.24723e-06 0.00362797 -0.00293987 -0.00259774 
692 231 2 0.4238 0.81649 9.87736 6.2 30.7637 -12.3927 -3.6045e-06 -0.0109425 0.00415602 -0.0232291 
121 41 1 -0.8476 0 12.4 0 5.67228 31.4511 2.88658e-14 0.0026602 -0.00268594 0.00155515 
122 41 2 0.4238 0.81649 12.9774 0 -37.0203 -17.7263 -1.11022e-16 0.0117996 0.0142271 0.00839577 
421 141 1 -0.8476 0 12.4 3.1 4.3 -54.9812 -1.01112e-05 0.00133191 -0.000632155 0.000149423 
422 141 2 0.4238 0.81649 12.9774 3.1 39.8822 25.975 -1.51293e-06 -0.0103697 -0.020385 0.0201922 
721 241 1 -0.8476 0 12.4 6.2 -22.9195 54.9176 1.62663e-05 0.00371796 0.00216643 -0.00481008 
722 241 2 0.4238 0.81649 12.9774 6.2 45.624 -19.3506 2.4315e-06 -0.0266971 0.026436 -0.00587387 
94 32 1 -0.8476 3.1 9.3 0 -15.9423 -47.0639 2.5091e-14 0.00106298 -8.36034e-05 -0.00348397 
95 32 2 0.4238 3.91649 9.87736 0 -8.68727 29.1596 1.58207e-15 0.00820467 -0.019865 -0.0244084 
394 132 1 -0.8476 3.1 9.3 3.1 37.6553 12.4384 1.08114e-05 0.00222434 0.00212639 0.00108447 
395 132 2 0.4238 3.91649 9.87736 3.1 -7.59605 -19.5416 1.90627e-06 0.00360973 0.0141886 0.0126312 
694 232 1 -0.8476 3.1 9.3 6.2 -15.9576 -61.5704 -1.7394e-05 0.00650122 0.000820961 0.00671909 
695 232 2 0.4238 3.91649 9.87736 6.2 11.283 36.4182 -3.06262e-06 0.0015956 -0.0162151 0.00227041 
124 42 1 -0.8476 3.1 12.4 0 74.553 -28.3796 3.20854e-14 -0.00247857 0.000347083 -0.00240172 
125 42 2 0.4238 3.91649 12.9774 0 -46.3319 -12.1783 -4.16334e-16 0.0203322 0.00215478 -0.0127487 
424 142 1 -0.8476 3.1 12.4 3.1 -111.408 68.8805 3.3331e-06 0.00520403 -0.000168449 5.41991e-05 
425 142 2 0.4238 3.91649 12.9774 3.1 16.9684 4.94032 -1.84659e-06 0.00125352 -0.00920371 -0.00740478 
724 242 1 -0.8476 3.1 12.4 6.2 12.807 24.7521 -5.36655e-06 0.003263 -0.000428353 -0.000720469 
725 242 2 0.4238 3.91649 12.9774 6.2 5.0904 -16.9131 2.97235e-06 0.00457009 0.00187213 0.0225525 
97 33 1 -0.8476 6.2 9.3 0 -8.23604 -23.1732 2.56635e-14 -0.00242023 0.00161253 -0.0058309 
98 33 2 0.4238 7.01649 9.87736 0 -10.4674 14.5254 5.85816e-15 0.00228842 -0.00643805 0.0126578 
397 133 1 -0.8476 6.2 9.3 3.1 33.3754 -78.8025 2.40954e-06 0.00318844 0.00640233 -0.000988063 
398 133 2 0.4238 7.01649 9.87736 3.1 -48.4248 27.6278 -3.54221e-06 0.0323063 -0.0198612 0.0207803 
697 233 1 -0.8476 6.2 9.3 6.2 23.3428 6.1623 -3.8753e-06 0.00394739 0.00217778 0.00037595 
698 233 2 0.4238 7.01649 9.87736 6.2 7.64599 -11.3074 5.69701e-06 0.00827183 -0.00300201 0.00503557 
127 43 1 -0.8476 6.2 12.4 0 -49.3551 45.585 2.91364e-14 -0.000742646 0.000500902 0.00287585 
128 43 2 0.4238 7.01649 12.9774 0 33.6909 -5.31567 2.14238e-15 -0.0199438 0.00932654 -0.00243609 
427 143 1 -0.8476 6.2 12.4 3.1 -13.2093 -2.60025 -5.06552e-06 0.00513014 0.00486614 -0.00116032 
428 143 2 0.4238 7.01649 12.9774 3.1 1.69018 5.99718 -7.29181e-06 0.0081989 -0.00415918 -0.0189122 
727 243 1 -0.8476 6.2 12.4 6.2 10.4724 -6.44647 8.14694e-06 -0.000756222 0.00399086 -0.00066397 
728 243 2 0.4238 7.01649 12.9774 6.2 -10.7657 -0.452634 1.17267e-05 -0.00875469 0.0211344 -0.00844445 
96 32 2 0.4238 2.28351 9.87736 0 24.6138 17.9139 9.99201e-16 -0.00525544 -0.00274233 -0.00351038 
396 132 2 0.4238 2.28351 9.87736 3.1 -30.075 7.11286 -3.77387e-06 0.0129806 -0.00470934 0.014903 
696 232 2 0.4238 2.28351 9.87736 6.2 4.65883 25.1618 6.07189e-06 0.00437446 -0.0111397 -0.00464679 
126 42 2 0.4238 2.28351 12.9774 0 -28.2369 40.5674 4.996e-16 0.0128339 -0.0151273 -0.0133177 
426 142 2 0.4238 2.28351 12.9774 3.1 94.4238 -73.8113 -7.52307e-06 -0.0296908 0.0403165 0.0336459 
726 242 2 0.4238 2.28351 12.9774 6.2 -17.9131 -7.82949 1.2101e-05 0.0142783 0.00782149 0.00963102 
99 33 2 0.4238 5.38351 9.87736 0 18.7287 8.65746 2.26208e-15 -0.00982867 -0.00235115 0.0125455 
399 133 2 0.4238 5.38351 9.87736 3.1 15.0746 51.1843 5.62147e-06 0.00632792 -0.00560579 0.0143783 
699 233 2 0.4238 5.38351 9.87736 6.2 -30.9635 5.15473 -9.03977e-06 0.0245595 0.00984898 0.0114407 
129 43 2 0.4238 5.38351 12.9774 0 15.6894 -40.2598 2.92821e-15 -0.0123843 0.0128994 0.00247419 
429 143 2 0.4238 5.38351 12.9774 3.1 11.5444 -3.38742 1.86595e-06 0.00475213 0.0125754 0.0108472 
729 243 2 0.4238 5.38351 12.9774 6.2 0.318548 6.90862 -3.00051e-06 -0.0125781 -0.0167558 -0.00102845 
100 34 1 -0.8476 9.3 9.3 0 9.90359 51.8295 2.38143e-14 -0.00409851 -0.00105544 -0.00306846 
101 34 2 0.4238 10.1165 9.87736 0 -8.80161 -29.4335 3.60822e-15 0.00152134 0.00984647 -0.0148355 
400 134 1 -0.8476 9.3 9.3 3.1 -36.0917 -3.48595 2.40954e-06 0.00447049 0.00256182 0.00125412 
401 134 2 0.4238 10.1165 9.87736 3.1 16.8041 14.4864 5.62147e-06 0.00324199 -0.0132759 0.0054682 
700 234 1 -0.8476 9.3 9.3 6.2 22.9525 -34.5559 -3.8753e-06 -0.00172529 0.00129016 0.00195548 
701 234 2 0.4238 10.1165 9.87736 6.2 -29.9888 9.1456 -9.03977e-06 0.00621174 0.0035928 -0.00545756 
130 44 1 -0.8476 9.3 12.4 0 -49.3523 11.514 2.58682e-14 0.00388022 -0.000430953 0.0105528 
131 44 2 0.4238 10.1165 12.9774 0 28.246 11.6748 1.72085e-15 -0.0147741 0.00282693 0.00787162 
430 144 1 -0.8476 9.3 12.4 3.1 -68.1475 26.4261 -5.06552e-06 0.0050463 0.00171825 -0.000530027 
431 144 2 0.4238 10.1165 12.9774 3.1 12.566 10.864 1.86595e-06 -0.00124888 -0.00352306 0.0151287 
730 244 1 -0.8476 9.3 12.4 6.2 -23.9793 -36.2794 8.14694e-06 0.00413304 0.000504783 -0.00726352 
731 244 2 0.4238 10.1165 12.9774 6.2 7.31722 26.6006 -3.00051e-06 0.000137478 -0.0115789 0.0107506 
103 35 1 -0.8476 12.4 9.3 0 -22.4121 -41.4033 1.86517e-14 0.000703024 -0.00294157 -0.00238457 
104 35 2 0.4238 13.2165 9.87736 0 5.58829 28.6443 5.32907e-15 0.00382321 -0.0252848 0.0167547 
403 135 1 -0.8476 12.4 9.3 3.1 -17.1833 1.07849 1.08114e-05 0.00255539 -0.000471918 -0.0059473 
404 135 2 0.4238 13.2165 9.87736 3.1 -5.91496 5.55466 -3.77387e-06 0.00395809 -0.00237636 0.0106841 
703 235 1 -0.8476 12.4 9.3 6.2 -16.6356 28.654 -1.7394e-05 0.000703944 -0.000520579 -0.00153083 
704 235 2 0.4238 13.2165 9.87736 6.2 -15.9786 -8.42675 6.07189e-06 0.0018709 0.00997458 0.0193413 
133 45 1 -0.8476 12.4 12.4 0 26.4484 -14.8823 3.10862e-14 -0.00154948 -0.00197531 -0.000464763 
134 45 2 0.4238 13.2165 12.9774 0 -40.7733 -1.8915 -8.88178e-16 0.0151343 -0.000370164 0.00731757 
433 145 1 -0.8476 12.4 12.4 3.1 -36.2477 43.4951 3.3331e-06 0.00407845 0.0017888 0.00387624 
434 145 2 0.4238 13.2165 12.9774 3.1 13.9956 -8.91327 -7.52307e-06 0.00192287 -0.000843835 -0.0180095 
733 245 1 -0.8476 12.4 12.4 6.2 -62.3964 -33.964 -5.36655e-06 0.00184204 0.0027878 0.00301769 
734 245 2 0.4238 13.2165 12.9774 6.2 57.3927 39.0614 1.2101e-05 -0.0211763 -0.017791 0.00258302 
102 34 2 0.4238 8.48351 9.87736 0 -1.12724 -22.3864 2.72829e-15 -0.00146357 0.01222 0.00246943 
402 134 2 0.4238 8.48351 9.87736 3.1 19.2624 -10.9909 -3.54221e-06 0.00263166 0.0165333 -0.0118435 
702 234 2 0.4238 8.48351 9.87736 6.2 7.011 25.4199 5.69701e-06 -0.0084677 -0.017447 0.0245987 
132 44 2 0.4238 8.48351 12.9774 0 21.081 -23.1793 -1.54152e-15 -0.0115593 0.00132934 -0.00390201 
432 144 2 0.4238 8.48351 12.9774 3.1 55.5562 -37.2806 -7.29181e-06 -0.018805 0.0192212 -0.00638913 
732 244 2 0.4238 8.48351 12.9774 6.2 16.6368 9.68831 1.17267e-05 -0.00359786 -0.00476444 -0.00399054 
105 35 2 0.4238 11.5835 9.87736 0 16.8396 12.7686 1.55431e-15 -0.000555208 -0.000669602 0.00444437 
405 135 2 0.4238 11.5835 9.87736 3.1 23.1139 -6.62354 1.90627e-06 -0.00771936 0.00186741 -0.0139426 
705 235 2 0.4238 11.5835 9.87736 6.2 32.6299 -20.2177 -3.06262e-06 -0.0181234 0.00146113 0.00849607 
135 45 2 0.4238 11.5835 12.9774 0 14.3406 16.7833 -4.44089e-16 -0.00773411 -0.010688 0.00468754 
435 145 2 0.4238 11.5835 12.9774 3.1 22.2678 -34.5724 -1.84659e-06 -0.000472595 0.0246325 0.0203904 
735 245 2 0.4238 11.5835 12.9774 6.2 5.01941 -5.08797 2.97235e-06 0.000692587 0.00734194 0.0154427 
108 36 2 0.4238 14.6835 9.87736 0 -42.275 -26.9467 3.55271e-15 0.0196845 0.0216138 -0.0154858 
408 136 2 0.4238 14.6835 9.87736 3.1 -0.802543 5.69915 2.24057e-06 -0.00385343 -0.0143157 -0.0235577 
708 236 2 0.4238 14.6835 9.87736 6.2 67.289 -23.5516 -3.6045e-06 -0.0270382 0.0163437 -0.0221106 
138 46 2 0.4238 14.6835 12.9774 0 49.6614 34.4169 -1.77636e-15 -0.023071 -0.0209404 -0.00488703 
438 146 2 0.4238 14.6835 12.9774 3.1 -53.1605 -17.7398 -1.51293e-06 0.026077 0.0187645 0.0033502 
738 246 2 0.4238 14.6835 12.9774 6.2 18.335 6.76263 2.4315e-06 0.00661907 0.021355 0.00550039 
901 301 1 -0.8476 0 0 9.3 17.1495 -33.5063 -1.93456e-05 -0.0010281 0.00163773 0.00354805 
902 301 2 0.4238 0.81649 0.577359 9.3 -4.18882 10.6774 8.94512e-06 0.00748778 -0.0133235 -0.012966 
1201 401 1 -0.8476 0 0 12.4 -17.9552 45.4844 1.20217e-05 0.00234572 0.00189591 -0.00638267 
1202 401 2 0.4238 0.81649 0.577359 12.4 3.20539 -16.4062 -5.5591e-06 0.00317963 0.00602039 -0.0144467 
931 311 1 -0.8476 0 3.1 9.3 -49.2023 -10.2443 -2.09537e-06 0.00292121 -0.00366717 0.00401989 
932 311 2 0.4238 0.81649 3.67736 9.3 32.8235 22.5337 -3.43233e-06 -0.0178291 -0.00522134 0.00745398 
1231 411 1 -0.8476 0 3.1 12.4 -1.43771 -57.7737 1.30219e-06 0.0014771 0.00143871 -0.000887611 
1232 411 2 0.4238 0.81649 3.67736 12.4 41.4999 29.4106 2.13384e-06 -0.0134515 -0.0157907 -0.0111377 
961 321 1 -0.8476 0 6.2 9.3 40.3424 28.9634 -2.71487e-05 0.000563381 -0.00318947 -0.00165529 
962 321 2 0.4238 0.81649 6.77736 9.3 -44.0857 -28.7579 5.40824e-06 0.0214752 0.00681389 0.014864 
1261 421 1 -0.8476 0 6.2 12.4 17.9113 18.6052 1.68744e-05 -0.00181586 -0.000319788 -0.000481719 
1262 421 2 0.4238 0.81649 6.77736 12.4 -31.9657 -15.648 -3.3602e-06 0.0133426 0.00382766 -0.0220593 
904 302 1 -0.8476 3.1 0 9.3 -1.862 6.71033 2.30116e-06 -0.000600398 0.000120787 -0.00437845 
905 302 2 0.4238 3.91649 0.577359 9.3 6.63763 -2.72293 8.40297e-06 -0.00494367 0.00358356 -0.00224385 
1204 402 1 -0.8476 3.1 0 12.4 13.9465 -18.7698 -1.43125e-06 -0.00619915 -0.000367231 -0.00313107 
1205 402 2 0.4238 3.91649 0.577359 12.4 18.9695 4.42785 -5.22464e-06 -0.024152 0.0112122 0.0108318 
934 312 1 -0.8476 3.1 3.1 9.3 -52.4777 -34.7472 1.95372e-05 0.00538972 0.00196399 0.00432693 
935 312 2 0.4238 3.91649 3.67736 9.3 31.9675 35.9294 -3.97341e-06 -0.0100035 -0.012877 -0.00254706 
1234 412 1 -0.8476 3.1 3.1 12.4 -70.3948 -6.42705 -1.21419e-05 0.000771116 -0.00152204 -0.00182791 
1235 412 2 0.4238 3.91649 3.67736 12.4 55.6362 28.1041 2.46764e-06 -0.0210132 -0.017889 -0.00566904 
964 322 1 -0.8476 3.1 6.2 9.3 -9.94588 20.8039 -5.50696e-06 0.00324285 -0.00232888 -0.00166322 
965 322 2 0.4238 3.91649 6.77736 9.3 20.003 -6.91193 4.86672e-06 -0.00161079 -0.00423384 -0.00154804 
1264 422 1 -0.8476 3.1 6.2 12.4 22.302 -4.20416 3.42465e-06 -0.000195223 0.00588909 -0.00783565 
1265 422 2 0.4238 3.91649 6.77736 12.4 -9.439 -5.80951 -3.02612e-06 0.00152727 0.0118238 0.00441824 
907 303 1 -0.8476 6.2 0 9.3 51.137 5.66145 -1.1221e-05 0.00147526 0.00127608 -0.000795852 
908 303 2 0.4238 7.01649 0.577359 9.3 -55.6562 -20.9011 -3.55413e-07 0.026146 0.00902535 0.0199588 
1207 403 1 -0.8476 6.2 0 12.4 -43.9791 9.14452 6.97277e-06 -0.00624383 0.00182427 -0.00150916 
1208 403 2 0.4238 7.01649 0.577359 12.4 18.9311 10.9867 2.23072e-07 -0.0134155 -0.00512397 -0.00420405 
937 313 1 -0.8476 6.2 3.1 9.3 -21.2785 8.54644 6.02388e-06 0.00682477 0.00276717 -0.00147715 
938 313 2 0.4238 7.01649 3.67736 9.3 14.9799 3.28751 -1.27306e-05 -0.00287323 0.00547105 0.0105237 
1237 413 1 -0.8476 6.2 3.1 12.4 -52.5437 -6.90808 -3.7434e-06 -0.00242014 0.00158213 -0.00118945 
1238 413 2 0.4238 7.01649 3.67736 12.4 56.9989 22.0689 7.91459e-06 -0.0299793 -0.00424004 0.00224793 
967 323 1 -0.8476 6.2 6.2 9.3 -51.2239 -19.4329 -1.9026e-05 0.000838287 0.00439616 0.000572929 
968 323 2 0.4238 7.01649 6.77736 9.3 10.1587 27.8366 -3.88844e-06 -0.00412558 -0.00850641 -0.000110529 
1267 423 1 -0.8476 6.2 6.2 12.4 -9.20283 38.6371 1.18267e-05 0.00211812 -0.00332164 -0.00350657 
1268 423 2 0.4238 7.01649 6.77736 12.4 -30.1163 -16.0554 2.41958e-06 0.0204441 -0.00443206 -0.0011484 
906 302 2 0.4238 2.28351 0.577359 9.3 -4.79136 -4.01205 -7.30463e-07 -0.000186846 -0.000232531 -0.00073526 
1206 402 2 0.4238 2.28351 0.577359 12.4 -32.9318 14.3173 4.54837e-07 -0.00156371 -0.0210547 -0.0194126 
936 312 2 0.4238 2.28351 3.67736 9.3 20.4945 -1.15127 -1.31049e-05 -0.00523072 0.000289271 -0.00620237 
1236 412 2 0.4238 2.28351 3.67736 12.4 14.7428 -21.6461 8.14593e-06 -0.00379537 0.0112163 -0.0237368 
966 322 2 0.4238 2.28351 6.77736 9.3 -10.0728 -13.9174 -4.26309e-06 0.0109691 0.00921835 0.00525891 
1266 422 2 0.4238 2.28351 6.77736 12.4 -12.8788 9.9883 2.6511e-06 0.00312019 -0.00210891 -0.0102581 
909 303 2 0.4238 5.38351 0.577359 9.3 4.54441 15.215 1.43796e-05 0.00117324 -0.00497477 0.0150093 
1209 403 2 0.4238 5.38351 0.577359 12.4 25.0732 -20.1559 -8.93953e-06 -0.0157602 0.0129158 0.0133559 
939 313 2 0.4238 5.38351 3.67736 9.3 6.32391 -11.803 2.0014e-06 0.000836164 0.00387773 -0.000819382 
1239 413 2 0.4238 5.38351 3.67736 12.4 -4.43004 -15.1299 -1.24611e-06 -0.00441505 0.00396302 0.00970959 
969 323 2 0.4238 5.38351 6.77736 9.3 41.0905 -8.42903 1.08407e-05 -0.0168724 0.00812419 0.012079 
1269 423 2 0.4238 5.38351 6.77736 12.4 39.3443 -22.607 -6.73938e-06 -0.00819761 0.0157229 -0.00366989 
910 304 1 -0.8476 9.3 0 9.3 -20.2295 -39.269 -1.1221e-05 0.00212332 -0.00199776 -0.000665003 
911 304 2 0.4238 10.1165 0.577359 9.3 26.3572 26.7525 1.43796e-05 -0.0196084 -0.000198148 0.00543318 
1210 404 1 -0.8476 9.3 0 12.4 68.7741 10.8261 6.97277e-06 0.00219735 -0.0019265 0.00206152 
1211 404 2 0.4238 10.1165 0.577359 12.4 1.67699 -29.7633 -8.93953e-06 -0.00481572 0.0214247 -0.0140555 
940 314 1 -0.8476 9.3 3.1 9.3 18.2202 -113.535 6.02388e-06 -0.00236635 0.000797338 0.00128164 
941 314 2 0.4238 10.1165 3.67736 9.3 -19.8302 50.319 2.0014e-06 0.010852 -0.0298104 0.0134974 
1240 414 1 -0.8476 9.3 3.1 12.4 1.47066 17.811 -3.7434e-06 -0.00179995 -0.00436985 -0.00165917 
1241 414 2 0.4238 10.1165 3.67736 12.4 16.7011 -9.43203 -1.24611e-06 -0.0100025 0.00154165 0.0117916 
970 324 1 -0.8476 9.3 6.2 9.3 2.92651 -24.8087 -1.9026e-05 -0.00215238 0.00278022 0.000280578 
971 324 2 0.4238 10.1165 6.77736 9.3 -19.3417 11.3349 1.08407e-05 0.0054554 -0.00193839 0.00648983 
1270 424 1 -0.8476 9.3 6.2 12.4 -8.49672 -30.0004 1.18267e-05 0.00640002 0.00647279 -0.00341719 
1271 424 2 0.4238 10.1165 6.77736 12.4 -3.77041 17.9696 -6.73938e-06 0.00449649 0.00267463 -0.0107553 
913 305 1 -0.8476 12.4 0 9.3 -17.3906 25.9527 2.30116e-06 0.000652558 -0.00181364 -0.00384877 
914 305 2 0.4238 13.2165 0.577359 9.3 -6.59128 -6.82629 -7.30463e-07 -0.0104074 0.0195416 -0.0135829 
1213 405 1 -0.8476 12.4 0 12.4 26.6301 25.2143 -1.43125e-06 -0.00343892 0.00392202 -0.000685109 
1214 405 2 0.4238 13.2165 0.577359 12.4 0.678298 -22.0211 4.54837e-07 -0.0140984 0.0280032 0.0210005 
943 315 1 -0.8476 12.4 3.1 9.3 11.2795 6.63804 1.95372e-05 -0.00384189 -0.00219228 0.00226708 
944 315 2 0.4238 13.2165 3.67736 9.3 10.5694 -7.27779 -1.31049e-05 -0.0121646 0.00563679 -0.0249198 
1243 415 1 -0.8476 12.4 3.1 12.4 2.42695 -9.75826 -1.21419e-05 -0.00144839 0.000325617 0.00160815 
1244 415 2 0.4238 13.2165 3.67736 12.4 -12.0556 4.05026 8.14593e-06 -0.00637889 0.0120319 0.00231656 
973 325 1 -0.8476 12.4 6.2 9.3 62.7844 31.3224 -5.50696e-06 0.00329456 0.000334278 -8.90354e-05 
974 325 2 0.4238 13.2165 6.77736 9.3 -63.0752 -37.8582 -4.26309e-06 0.0196798 0.0321577 0.0120175 
1273 425 1 -0.8476 12.4 6.2 12.4 -27.6143 67.8367 3.42465e-06 0.000612337 -0.00124253 0.00309656 
1274 425 2 0.4238 13.2165 6.77736 12.4 45.2587 -24.1539 2.6511e-06 -0.0129923 0.00151772 0.0199015 
912 304 2 0.4238 8.48351 0.577359 9.3 -6.15296 12.4918 -3.55413e-07 -0.00555869 -0.0224881 -0.00513801 
1212 404 2 0.4238 8.48351 0.577359 12.4 -70.4764 18.9125 2.23072e-07 0.025511 -0.020801 -0.00263447 
942 314 2 0.4238 8.48351 3.67736 9.3 1.58472 63.247 -1.27306e-05 0.00301888 -0.0219541 -0.0258495 
1242 414 2 0.4238 8.48351 3.67736 12.4 -18.197 -8.34809 7.91459e-06 0.00465208 -0.00207147 -0.00454151 
972 324 2 0.4238 8.48351 6.77736 9.3 16.39 13.4484 -3.88844e-06 -0.00926953 -0.00408708 -0.00664297 
1272 424 2 0.4238 8.48351 6.77736 12.4 12.2419 12.0054 2.41958e-06 -0.00144372 -0.00405001 0.0219257 
915 305 2 0.4238 11.5835 0.577359 9.3 23.9976 -19.1511 8.40297e-06 -0.0222663 -0.0117534 -0.00710623 
1215 405 2 0.4238 11.5835 0.577359 12.4 -27.2927 -3.21784 -5.22464e-06 -0.00156537 -0.00902954 -0.0045444 
945 315 2 0.4238 11.5835 3.67736 9.3 -21.8332 0.670672 -3.97341e-06 0.00160297 -0.00799403 -0.00459427 