# LAMMPS data file written by OVITO
10 atoms
3 atom types
0.0 4.988 xlo xhi
0.0 4.1316629 ylo yhi
-4.5 1.5 zlo zhi

Atoms # full

1 13 1 0.0 3.1340001 2.813 0.779
2 4 2 0.0 4.988 4.0469999 0.0
3 13 1 0.0 1.214 2.0239999 0.0
4 13 3 0.0 2.494 2.0239999 0.0
5 13 1 0.0 3.1340001 1.234 -0.779
6 19 1 0.0 4.3480001 3.786 -2.2560001
7 10 2 0.0 2.494 0.973 -3.0350001
8 19 1 0.0 6.2680001 2.997 -3.0350001
9 19 3 0.0 4.988 2.997 -3.0350001
10 19 1 0.0 4.3480001 2.208 -3.8139999
